<?xml version="1.0" encoding="UTF-8"?>

<!-- generated on 2021-09-03 09:40:21 by Eclipse SUMO GUI Version 1.9.2
<configuration xmlns:xsi="http://www.w3.org/2001/XMLSchema-instance" xsi:noNamespaceSchemaLocation="http://sumo.dlr.de/xsd/sumoConfiguration.xsd">

    <input>
        <net-file value="C:\Users\iulia.onica\Desktop\PoduRos\PoduRos.net.xml"/>
        <route-files value="C:\Users\iulia.onica\Desktop\PoduRos\PoduRos.rou.xml"/>
        <additional-files value="C:\Users\iulia.onica\Desktop\PoduRos\main.add.xml"/>
    </input>

    <time>
        <begin value="0"/>
        <end value="10000"/>
    </time>

</configuration>
-->

<meandata xmlns:xsi="http://www.w3.org/2001/XMLSchema-instance" xsi:noNamespaceSchemaLocation="http://sumo.dlr.de/xsd/meandata_file.xsd">
    <interval begin="0.00" end="20.00" id="dumps_0_10000">
        <edge id="-240593088#5" sampledSeconds="0.06" traveltime="10.01" overlapTraveltime="10.94" density="0.06" laneDensity="0.02" occupancy="0.00" waitingTime="0.00" timeLoss="0.04" speed="5.39" departed="0" arrived="0" entered="1" left="0" laneChangedFrom="1" laneChangedTo="1"/>
        <edge id="-25368524#3" sampledSeconds="0.16" traveltime="8.84" overlapTraveltime="9.62" density="0.14" laneDensity="0.07" occupancy="0.00" waitingTime="0.00" timeLoss="0.07" speed="6.43" departed="0" arrived="0" entered="1" left="0" laneChangedFrom="0" laneChangedTo="0"/>
        <edge id="-25368524#4" sampledSeconds="3.97" traveltime="3.19" overlapTraveltime="3.97" density="7.53" laneDensity="3.77" occupancy="1.59" waitingTime="0.00" timeLoss="1.31" speed="7.90" departed="0" arrived="0" entered="1" left="1" laneChangedFrom="1" laneChangedTo="1"/>
        <edge id="-25368524#5" sampledSeconds="6.19" traveltime="5.74" overlapTraveltime="6.19" density="7.31" laneDensity="3.65" occupancy="1.52" waitingTime="0.00" timeLoss="2.17" speed="7.65" departed="0" arrived="0" entered="1" left="1" laneChangedFrom="0" laneChangedTo="0"/>
        <edge id="-290635797#1" sampledSeconds="14.00" traveltime="15.25" overlapTraveltime="16.27" density="9.40" laneDensity="4.70" occupancy="2.35" waitingTime="4.00" timeLoss="8.08" speed="4.88" departed="1" arrived="0" entered="0" left="0" laneChangedFrom="1" laneChangedTo="1"/>
        <edge id="-30824328#0" sampledSeconds="4.28" traveltime="3.40" overlapTraveltime="4.28" density="7.01" laneDensity="7.01" occupancy="2.98" waitingTime="0.00" timeLoss="1.13" speed="8.30" departed="0" arrived="0" entered="1" left="1" laneChangedFrom="0" laneChangedTo="0"/>
        <edge id="-30824328#1" sampledSeconds="2.41" traveltime="2.00" overlapTraveltime="2.41" density="4.85" laneDensity="4.85" occupancy="2.02" waitingTime="0.00" timeLoss="0.12" speed="12.38" departed="0" arrived="0" entered="1" left="1" laneChangedFrom="0" laneChangedTo="0"/>
        <edge id="-30824328#2" sampledSeconds="1.38" traveltime="0.98" overlapTraveltime="1.38" density="5.51" laneDensity="5.51" occupancy="1.96" waitingTime="0.00" timeLoss="0.03" speed="12.71" departed="0" arrived="0" entered="1" left="1" laneChangedFrom="0" laneChangedTo="0"/>
        <edge id="-30824328#3" sampledSeconds="0.75" traveltime="0.35" overlapTraveltime="0.75" density="8.60" laneDensity="8.60" occupancy="2.01" waitingTime="0.00" timeLoss="0.03" speed="12.45" departed="0" arrived="0" entered="1" left="1" laneChangedFrom="0" laneChangedTo="0"/>
        <edge id="-30824328#5" sampledSeconds="1.38" traveltime="0.98" overlapTraveltime="1.38" density="5.93" laneDensity="5.93" occupancy="2.08" waitingTime="0.00" timeLoss="0.10" speed="12.07" departed="0" arrived="0" entered="1" left="1" laneChangedFrom="0" laneChangedTo="0"/>
        <edge id="-30824328#6" sampledSeconds="0.81" traveltime="0.39" overlapTraveltime="0.81" density="8.65" laneDensity="8.65" occupancy="2.09" waitingTime="0.00" timeLoss="0.07" speed="11.98" departed="0" arrived="0" entered="1" left="1" laneChangedFrom="0" laneChangedTo="0"/>
        <edge id="-30824328#7" sampledSeconds="5.17" traveltime="5.52" overlapTraveltime="5.90" density="7.07" laneDensity="7.07" occupancy="3.39" waitingTime="0.00" timeLoss="2.37" speed="7.06" departed="1" arrived="0" entered="0" left="1" laneChangedFrom="0" laneChangedTo="0"/>
        <edge id="100127193" sampledSeconds="8.00" traveltime="20.13" overlapTraveltime="20.77" density="2.53" laneDensity="2.53" occupancy="1.26" waitingTime="0.00" timeLoss="3.17" speed="7.86" departed="1" arrived="0" entered="0" left="0" laneChangedFrom="0" laneChangedTo="0"/>
        <edge id="165518602#0" sampledSeconds="2.00" traveltime="148.13" overlapTraveltime="150.18" density="0.28" laneDensity="0.14" occupancy="0.07" waitingTime="0.00" timeLoss="1.73" speed="2.43" departed="1" arrived="0" entered="0" left="0" laneChangedFrom="0" laneChangedTo="0"/>
        <edge id="205658400#1" sampledSeconds="7.48" traveltime="7.71" overlapTraveltime="8.05" density="5.62" laneDensity="5.62" occupancy="2.74" waitingTime="0.00" timeLoss="2.84" speed="8.88" departed="1" arrived="0" entered="0" left="1" laneChangedFrom="0" laneChangedTo="0"/>
        <edge id="205658400#2" sampledSeconds="4.89" traveltime="3.86" overlapTraveltime="4.89" density="5.59" laneDensity="5.59" occupancy="2.43" waitingTime="0.00" timeLoss="1.10" speed="9.97" departed="0" arrived="0" entered="1" left="1" laneChangedFrom="0" laneChangedTo="0"/>
        <edge id="22816050#0" sampledSeconds="1.54" traveltime="8.43" overlapTraveltime="9.05" density="1.12" laneDensity="1.12" occupancy="0.43" waitingTime="0.00" timeLoss="0.67" speed="8.14" departed="0" arrived="0" entered="1" left="0" laneChangedFrom="0" laneChangedTo="0"/>
        <edge id="25368524#5" sampledSeconds="8.25" traveltime="7.44" overlapTraveltime="9.24" density="9.74" laneDensity="4.87" occupancy="2.16" waitingTime="0.00" timeLoss="3.54" speed="5.12" departed="1" arrived="0" entered="0" left="1" laneChangedFrom="1" laneChangedTo="1"/>
        <edge id="256447684#7" sampledSeconds="10.52" traveltime="10.68" overlapTraveltime="11.02" density="4.92" laneDensity="1.64" occupancy="0.81" waitingTime="0.00" timeLoss="3.17" speed="10.15" departed="1" arrived="0" entered="0" left="1" laneChangedFrom="0" laneChangedTo="0"/>
        <edge id="256447684#8" sampledSeconds="1.35" traveltime="1.42" overlapTraveltime="1.77" density="3.37" laneDensity="1.12" occupancy="0.49" waitingTime="0.00" timeLoss="0.04" speed="14.14" departed="0" arrived="0" entered="1" left="0" laneChangedFrom="0" laneChangedTo="0"/>
        <edge id="29201170#0" sampledSeconds="17.00" traveltime="56.59" overlapTraveltime="57.14" density="1.64" laneDensity="0.82" occupancy="0.41" waitingTime="0.00" timeLoss="3.10" speed="9.18" departed="1" arrived="0" entered="0" left="0" laneChangedFrom="0" laneChangedTo="0"/>
        <edge id="305269410#0" sampledSeconds="10.00" traveltime="17.88" overlapTraveltime="18.49" density="3.37" laneDensity="1.68" occupancy="0.84" waitingTime="0.00" timeLoss="3.26" speed="8.30" departed="1" arrived="0" entered="0" left="0" laneChangedFrom="0" laneChangedTo="0"/>
        <edge id="30824261#0" sampledSeconds="1.00" traveltime="120.71" overlapTraveltime="122.73" density="0.17" laneDensity="0.17" occupancy="0.08" waitingTime="0.00" timeLoss="0.83" speed="2.48" departed="1" arrived="0" entered="0" left="0" laneChangedFrom="0" laneChangedTo="0"/>
        <edge id="39458804#0" sampledSeconds="0.00" departed="1" arrived="0" entered="0" left="0" laneChangedFrom="0" laneChangedTo="0"/>
        <edge id="52503865#0" sampledSeconds="11.74" traveltime="11.84" overlapTraveltime="12.20" density="4.41" laneDensity="2.21" occupancy="1.09" waitingTime="0.00" timeLoss="2.90" speed="11.32" departed="1" arrived="0" entered="0" left="1" laneChangedFrom="1" laneChangedTo="1"/>
        <edge id="52503865#1" sampledSeconds="4.26" traveltime="8.12" overlapTraveltime="8.47" density="1.81" laneDensity="0.90" occupancy="0.43" waitingTime="0.00" timeLoss="0.15" speed="14.49" departed="0" arrived="0" entered="1" left="0" laneChangedFrom="0" laneChangedTo="0"/>
        <edge id="686715079#0" sampledSeconds="7.00" traveltime="57.65" overlapTraveltime="58.26" density="0.75" laneDensity="0.37" occupancy="0.19" waitingTime="0.00" timeLoss="2.22" speed="8.13" departed="1" arrived="0" entered="0" left="0" laneChangedFrom="0" laneChangedTo="0"/>
    </interval>
    <interval begin="20.00" end="40.00" id="dumps_0_10000">
        <edge id="-23025730#3" sampledSeconds="7.13" traveltime="6.45" overlapTraveltime="8.26" density="10.96" laneDensity="10.96" occupancy="4.78" waitingTime="0.00" timeLoss="3.51" speed="4.55" departed="1" arrived="0" entered="0" left="1" laneChangedFrom="0" laneChangedTo="0"/>
        <edge id="-23533274#0" sampledSeconds="4.46" traveltime="8.42" overlapTraveltime="8.83" density="2.15" laneDensity="2.15" occupancy="1.03" waitingTime="0.00" timeLoss="0.23" speed="12.32" departed="0" arrived="0" entered="1" left="0" laneChangedFrom="0" laneChangedTo="0"/>
        <edge id="-23533274#1" sampledSeconds="5.50" traveltime="5.96" overlapTraveltime="6.29" density="7.71" laneDensity="7.71" occupancy="3.72" waitingTime="0.00" timeLoss="2.76" speed="6.47" departed="1" arrived="0" entered="0" left="1" laneChangedFrom="0" laneChangedTo="0"/>
        <edge id="-23533274#5" sampledSeconds="8.85" traveltime="8.00" overlapTraveltime="9.77" density="9.01" laneDensity="9.01" occupancy="4.08" waitingTime="0.00" timeLoss="4.47" speed="5.54" departed="1" arrived="0" entered="0" left="1" laneChangedFrom="0" laneChangedTo="0"/>
        <edge id="-240593088#5" sampledSeconds="7.95" traveltime="6.30" overlapTraveltime="7.99" density="7.36" laneDensity="2.45" occupancy="1.05" waitingTime="0.00" timeLoss="2.74" speed="7.38" departed="0" arrived="0" entered="0" left="1" laneChangedFrom="0" laneChangedTo="0"/>
        <edge id="-25274426#0" sampledSeconds="4.43" traveltime="3.78" overlapTraveltime="4.43" density="5.73" laneDensity="5.73" occupancy="2.49" waitingTime="0.00" timeLoss="1.15" speed="9.86" departed="0" arrived="0" entered="1" left="1" laneChangedFrom="0" laneChangedTo="0"/>
        <edge id="-25274426#1" sampledSeconds="1.53" traveltime="0.93" overlapTraveltime="1.53" density="11.36" laneDensity="11.36" occupancy="3.14" waitingTime="0.00" timeLoss="0.75" speed="7.68" departed="0" arrived="0" entered="1" left="1" laneChangedFrom="0" laneChangedTo="0"/>
        <edge id="-25368524#0" sampledSeconds="3.50" traveltime="3.08" overlapTraveltime="3.50" density="5.15" laneDensity="2.57" occupancy="1.13" waitingTime="0.00" timeLoss="0.33" speed="11.14" departed="0" arrived="0" entered="1" left="1" laneChangedFrom="0" laneChangedTo="0"/>
        <edge id="-25368524#1" sampledSeconds="4.40" traveltime="3.95" overlapTraveltime="4.40" density="4.97" laneDensity="2.49" occupancy="1.12" waitingTime="0.00" timeLoss="0.22" speed="11.19" departed="0" arrived="0" entered="1" left="1" laneChangedFrom="0" laneChangedTo="0"/>
        <edge id="-25368524#2" sampledSeconds="1.98" traveltime="1.55" overlapTraveltime="1.98" density="5.55" laneDensity="2.77" occupancy="1.08" waitingTime="0.00" timeLoss="0.04" speed="11.53" departed="0" arrived="0" entered="1" left="1" laneChangedFrom="0" laneChangedTo="0"/>
        <edge id="-25368524#3" sampledSeconds="5.90" traveltime="5.52" overlapTraveltime="6.00" density="5.19" laneDensity="2.60" occupancy="1.21" waitingTime="0.00" timeLoss="0.74" speed="10.30" departed="0" arrived="0" entered="0" left="1" laneChangedFrom="0" laneChangedTo="0"/>
        <edge id="-264138360" sampledSeconds="4.00" traveltime="24.75" overlapTraveltime="25.69" density="1.52" laneDensity="0.51" occupancy="0.25" waitingTime="0.00" timeLoss="2.43" speed="5.31" departed="1" arrived="0" entered="0" left="0" laneChangedFrom="0" laneChangedTo="0"/>
        <edge id="-290635797#1" sampledSeconds="20.00" overlapTraveltime="100000.00" density="13.43" laneDensity="6.72" occupancy="3.36" waitingTime="20.00" timeLoss="20.00" speed="0.00" departed="0" arrived="0" entered="0" left="0" laneChangedFrom="0" laneChangedTo="0"/>
        <edge id="-290648670#1" sampledSeconds="11.04" traveltime="11.24" overlapTraveltime="11.57" density="5.20" laneDensity="1.73" occupancy="0.85" waitingTime="0.00" timeLoss="4.24" speed="9.60" departed="1" arrived="0" entered="0" left="1" laneChangedFrom="0" laneChangedTo="0"/>
        <edge id="-290923600#12" sampledSeconds="0.94" traveltime="0.60" overlapTraveltime="0.94" density="5.18" laneDensity="1.73" occupancy="0.56" waitingTime="0.00" timeLoss="0.04" speed="14.96" departed="0" arrived="0" entered="1" left="1" laneChangedFrom="0" laneChangedTo="0"/>
        <edge id="-290923600#13" sampledSeconds="4.17" traveltime="3.85" overlapTraveltime="4.17" density="3.55" laneDensity="1.18" occupancy="0.55" waitingTime="0.00" timeLoss="0.09" speed="15.27" departed="0" arrived="0" entered="1" left="1" laneChangedFrom="0" laneChangedTo="0"/>
        <edge id="-58636262#2" sampledSeconds="5.00" traveltime="6.33" overlapTraveltime="7.51" density="9.32" laneDensity="9.32" occupancy="4.66" waitingTime="0.00" timeLoss="3.49" speed="4.24" departed="1" arrived="0" entered="0" left="0" laneChangedFrom="0" laneChangedTo="0"/>
        <edge id="100127193" sampledSeconds="7.64" traveltime="12.69" overlapTraveltime="13.09" density="2.41" laneDensity="2.41" occupancy="1.18" waitingTime="0.00" timeLoss="0.33" speed="12.47" departed="0" arrived="0" entered="0" left="1" laneChangedFrom="0" laneChangedTo="0"/>
        <edge id="158005036#0" sampledSeconds="8.33" traveltime="8.48" overlapTraveltime="8.89" density="5.57" laneDensity="2.79" occupancy="1.36" waitingTime="0.00" timeLoss="2.53" speed="8.96" departed="1" arrived="0" entered="0" left="1" laneChangedFrom="0" laneChangedTo="0"/>
        <edge id="158005036#1" sampledSeconds="4.92" traveltime="5.96" overlapTraveltime="6.39" density="3.54" laneDensity="1.77" occupancy="0.85" waitingTime="0.00" timeLoss="0.46" speed="11.66" departed="0" arrived="0" entered="1" left="0" laneChangedFrom="0" laneChangedTo="0"/>
        <edge id="165518602#0" sampledSeconds="20.00" traveltime="23.82" overlapTraveltime="24.15" density="2.78" laneDensity="1.39" occupancy="0.69" waitingTime="0.00" timeLoss="3.36" speed="15.13" departed="0" arrived="0" entered="0" left="0" laneChangedFrom="1" laneChangedTo="1"/>
        <edge id="165518602#1" sampledSeconds="7.08" traveltime="11.46" overlapTraveltime="11.82" density="2.18" laneDensity="1.09" occupancy="0.52" waitingTime="0.00" timeLoss="1.53" speed="14.14" departed="0" arrived="0" entered="1" left="0" laneChangedFrom="0" laneChangedTo="0"/>
        <edge id="208120979#0" sampledSeconds="2.04" traveltime="2.12" overlapTraveltime="2.55" density="4.10" laneDensity="4.10" occupancy="1.81" waitingTime="0.00" timeLoss="0.31" speed="11.70" departed="0" arrived="0" entered="1" left="0" laneChangedFrom="0" laneChangedTo="0"/>
        <edge id="22816050#0" sampledSeconds="4.77" traveltime="5.38" overlapTraveltime="5.75" density="3.47" laneDensity="3.47" occupancy="1.67" waitingTime="0.00" timeLoss="0.50" speed="12.80" departed="0" arrived="0" entered="0" left="1" laneChangedFrom="0" laneChangedTo="0"/>
        <edge id="22816050#1" sampledSeconds="3.66" traveltime="2.94" overlapTraveltime="3.66" density="7.36" laneDensity="7.36" occupancy="3.11" waitingTime="0.00" timeLoss="1.27" speed="8.16" departed="0" arrived="0" entered="1" left="1" laneChangedFrom="0" laneChangedTo="0"/>
        <edge id="22895267" sampledSeconds="0.70" traveltime="0.31" overlapTraveltime="0.70" density="9.49" laneDensity="9.49" occupancy="2.05" waitingTime="0.00" timeLoss="0.11" speed="12.37" departed="0" arrived="0" entered="1" left="1" laneChangedFrom="0" laneChangedTo="0"/>
        <edge id="23025730#3" sampledSeconds="5.82" traveltime="5.25" overlapTraveltime="5.82" density="8.94" laneDensity="8.94" occupancy="3.61" waitingTime="0.00" timeLoss="2.80" speed="6.45" departed="0" arrived="0" entered="1" left="1" laneChangedFrom="0" laneChangedTo="0"/>
        <edge id="23533274#5" sampledSeconds="2.26" traveltime="8.12" overlapTraveltime="8.94" density="2.30" laneDensity="2.30" occupancy="0.85" waitingTime="0.00" timeLoss="1.21" speed="6.05" departed="0" arrived="0" entered="1" left="0" laneChangedFrom="0" laneChangedTo="0"/>
        <edge id="240593088#5" sampledSeconds="6.65" traveltime="6.23" overlapTraveltime="6.65" density="6.07" laneDensity="2.02" occupancy="0.88" waitingTime="0.00" timeLoss="2.07" speed="8.98" departed="0" arrived="0" entered="1" left="1" laneChangedFrom="0" laneChangedTo="0"/>
        <edge id="256447684#10" sampledSeconds="2.11" traveltime="1.74" overlapTraveltime="2.11" density="4.51" laneDensity="1.50" occupancy="0.62" waitingTime="0.00" timeLoss="0.16" speed="13.46" departed="0" arrived="0" entered="1" left="1" laneChangedFrom="0" laneChangedTo="0"/>
        <edge id="256447684#4" sampledSeconds="3.66" traveltime="4.20" overlapTraveltime="4.65" density="9.71" laneDensity="3.24" occupancy="1.49" waitingTime="0.00" timeLoss="2.12" speed="5.12" departed="1" arrived="0" entered="0" left="1" laneChangedFrom="0" laneChangedTo="0"/>
        <edge id="256447684#5" sampledSeconds="1.92" traveltime="1.47" overlapTraveltime="1.92" density="6.18" laneDensity="2.06" occupancy="0.78" waitingTime="0.00" timeLoss="0.24" speed="10.70" departed="0" arrived="0" entered="1" left="1" laneChangedFrom="0" laneChangedTo="0"/>
        <edge id="256447684#6" sampledSeconds="0.87" traveltime="0.44" overlapTraveltime="0.87" density="8.78" laneDensity="2.93" occupancy="0.73" waitingTime="0.00" timeLoss="0.06" speed="11.42" departed="0" arrived="0" entered="1" left="1" laneChangedFrom="0" laneChangedTo="0"/>
        <edge id="256447684#7" sampledSeconds="14.22" traveltime="9.12" overlapTraveltime="9.50" density="6.66" laneDensity="2.22" occupancy="1.05" waitingTime="0.00" timeLoss="1.86" speed="11.76" departed="0" arrived="0" entered="2" left="1" laneChangedFrom="1" laneChangedTo="1"/>
        <edge id="256447684#8" sampledSeconds="0.97" traveltime="1.44" overlapTraveltime="1.83" density="2.41" laneDensity="0.80" occupancy="0.25" waitingTime="0.00" timeLoss="0.05" speed="13.70" departed="0" arrived="0" entered="1" left="1" laneChangedFrom="0" laneChangedTo="0"/>
        <edge id="256447685" sampledSeconds="2.04" traveltime="1.67" overlapTraveltime="2.04" density="4.33" laneDensity="4.33" occupancy="1.78" waitingTime="0.00" timeLoss="0.07" speed="14.00" departed="0" arrived="0" entered="1" left="1" laneChangedFrom="0" laneChangedTo="0"/>
        <edge id="256585921" sampledSeconds="2.00" traveltime="37.12" overlapTraveltime="38.65" density="0.83" laneDensity="0.41" occupancy="0.21" waitingTime="0.00" timeLoss="1.43" speed="3.26" departed="1" arrived="0" entered="0" left="0" laneChangedFrom="0" laneChangedTo="0"/>
        <edge id="29201170#0" sampledSeconds="20.00" traveltime="48.36" overlapTraveltime="48.82" density="1.92" laneDensity="0.96" occupancy="0.48" waitingTime="0.00" timeLoss="0.86" speed="10.74" departed="0" arrived="0" entered="0" left="0" laneChangedFrom="0" laneChangedTo="0"/>
        <edge id="305260418" sampledSeconds="0.91" traveltime="0.57" overlapTraveltime="1.03" density="7.24" laneDensity="3.62" occupancy="1.11" waitingTime="0.00" timeLoss="0.23" speed="10.91" departed="0" arrived="0" entered="1" left="1" laneChangedFrom="0" laneChangedTo="0"/>
        <edge id="305269410#0" sampledSeconds="5.53" traveltime="12.51" overlapTraveltime="12.99" density="1.86" laneDensity="0.93" occupancy="0.45" waitingTime="0.00" timeLoss="0.22" speed="11.81" departed="0" arrived="0" entered="0" left="1" laneChangedFrom="0" laneChangedTo="0"/>
        <edge id="305269410#1" sampledSeconds="14.46" traveltime="14.96" overlapTraveltime="17.45" density="24.11" laneDensity="12.05" occupancy="5.93" waitingTime="8.00" timeLoss="12.11" speed="2.00" departed="0" arrived="0" entered="1" left="0" laneChangedFrom="0" laneChangedTo="0"/>
        <edge id="305272857" sampledSeconds="4.14" traveltime="3.45" overlapTraveltime="4.14" density="6.07" laneDensity="3.03" occupancy="1.33" waitingTime="0.00" timeLoss="1.62" speed="9.45" departed="0" arrived="0" entered="1" left="1" laneChangedFrom="1" laneChangedTo="1"/>
        <edge id="305534238#0" sampledSeconds="0.01" traveltime="0.10" overlapTraveltime="2.52" density="3.40" laneDensity="1.13" occupancy="0.00" waitingTime="0.00" timeLoss="0.01" speed="2.06" departed="0" arrived="0" entered="1" left="0" laneChangedFrom="1" laneChangedTo="1"/>
        <edge id="30824261#0" sampledSeconds="20.00" traveltime="25.28" overlapTraveltime="25.70" density="3.35" laneDensity="3.35" occupancy="1.67" waitingTime="0.00" timeLoss="3.41" speed="11.82" departed="0" arrived="0" entered="0" left="0" laneChangedFrom="0" laneChangedTo="0"/>
        <edge id="319018032#0" sampledSeconds="7.00" traveltime="13.32" overlapTraveltime="14.06" density="3.88" laneDensity="1.94" occupancy="0.97" waitingTime="0.00" timeLoss="2.80" speed="6.78" departed="1" arrived="0" entered="0" left="0" laneChangedFrom="1" laneChangedTo="1"/>
        <edge id="332026891" sampledSeconds="1.08" traveltime="0.69" overlapTraveltime="1.08" density="6.35" laneDensity="2.12" occupancy="0.67" waitingTime="0.00" timeLoss="0.04" speed="12.52" departed="0" arrived="0" entered="1" left="1" laneChangedFrom="0" laneChangedTo="0"/>
        <edge id="383737633" sampledSeconds="1.27" traveltime="0.57" overlapTraveltime="1.27" density="13.72" laneDensity="2.74" occupancy="0.64" waitingTime="0.00" timeLoss="0.18" speed="7.59" departed="0" arrived="0" entered="1" left="1" laneChangedFrom="0" laneChangedTo="0"/>
        <edge id="39458804#0" sampledSeconds="20.00" traveltime="33.98" overlapTraveltime="34.39" density="2.45" laneDensity="1.23" occupancy="0.61" waitingTime="0.00" timeLoss="3.50" speed="12.00" departed="0" arrived="0" entered="0" left="0" laneChangedFrom="0" laneChangedTo="0"/>
        <edge id="40128197#5" sampledSeconds="3.00" traveltime="9.11" overlapTraveltime="10.64" density="5.05" laneDensity="5.05" occupancy="2.52" waitingTime="0.00" timeLoss="2.01" speed="3.26" departed="1" arrived="0" entered="0" left="0" laneChangedFrom="0" laneChangedTo="0"/>
        <edge id="45823926" sampledSeconds="0.85" traveltime="0.19" overlapTraveltime="0.85" density="28.81" laneDensity="28.81" occupancy="3.27" waitingTime="0.00" timeLoss="0.14" speed="7.60" departed="0" arrived="0" entered="1" left="1" laneChangedFrom="0" laneChangedTo="0"/>
        <edge id="52503865#1" sampledSeconds="5.02" traveltime="8.97" overlapTraveltime="10.10" density="2.13" laneDensity="1.07" occupancy="0.49" waitingTime="0.00" timeLoss="0.46" speed="12.16" departed="0" arrived="0" entered="0" left="1" laneChangedFrom="0" laneChangedTo="0"/>
        <edge id="676112592#2" sampledSeconds="1.53" traveltime="1.13" overlapTraveltime="1.53" density="5.25" laneDensity="1.75" occupancy="0.65" waitingTime="0.00" timeLoss="0.03" speed="12.79" departed="0" arrived="0" entered="1" left="1" laneChangedFrom="0" laneChangedTo="0"/>
        <edge id="676112592#3" sampledSeconds="0.76" traveltime="2.49" overlapTraveltime="2.90" density="1.25" laneDensity="0.42" occupancy="0.15" waitingTime="0.00" timeLoss="0.05" speed="12.12" departed="0" arrived="0" entered="1" left="0" laneChangedFrom="0" laneChangedTo="0"/>
        <edge id="686715079#0" sampledSeconds="20.00" traveltime="41.41" overlapTraveltime="41.85" density="2.13" laneDensity="1.07" occupancy="0.53" waitingTime="0.00" timeLoss="0.99" speed="11.32" departed="0" arrived="0" entered="0" left="0" laneChangedFrom="1" laneChangedTo="1"/>
        <edge id="686720690#0" sampledSeconds="0.44" traveltime="0.02" overlapTraveltime="0.44" density="111.04" laneDensity="111.04" occupancy="2.14" waitingTime="0.00" timeLoss="0.04" speed="11.71" departed="0" arrived="0" entered="1" left="1" laneChangedFrom="0" laneChangedTo="0"/>
        <edge id="686720690#1" sampledSeconds="0.97" traveltime="1.95" overlapTraveltime="2.37" density="2.10" laneDensity="2.10" occupancy="0.82" waitingTime="0.00" timeLoss="0.08" speed="11.91" departed="0" arrived="0" entered="1" left="0" laneChangedFrom="0" laneChangedTo="0"/>
        <edge id="686720691" sampledSeconds="3.43" traveltime="2.73" overlapTraveltime="3.43" density="6.62" laneDensity="6.62" occupancy="2.77" waitingTime="0.00" timeLoss="0.65" speed="9.01" departed="0" arrived="0" entered="1" left="1" laneChangedFrom="0" laneChangedTo="0"/>
        <edge id="686720692#1" sampledSeconds="0.96" traveltime="0.50" overlapTraveltime="0.96" density="8.79" laneDensity="8.79" occupancy="2.30" waitingTime="0.00" timeLoss="0.05" speed="10.89" departed="0" arrived="0" entered="1" left="1" laneChangedFrom="0" laneChangedTo="0"/>
        <edge id="686720692#2" sampledSeconds="0.96" traveltime="0.47" overlapTraveltime="0.96" density="10.06" laneDensity="10.06" occupancy="2.45" waitingTime="0.00" timeLoss="0.10" speed="10.18" departed="0" arrived="0" entered="1" left="1" laneChangedFrom="0" laneChangedTo="0"/>
        <edge id="686720692#3" sampledSeconds="1.15" traveltime="0.72" overlapTraveltime="1.15" density="7.85" laneDensity="7.85" occupancy="2.35" waitingTime="0.00" timeLoss="0.20" speed="10.72" departed="0" arrived="0" entered="1" left="1" laneChangedFrom="0" laneChangedTo="0"/>
        <edge id="686720692#5" sampledSeconds="3.93" traveltime="3.50" overlapTraveltime="3.93" density="5.07" laneDensity="5.07" occupancy="2.21" waitingTime="0.00" timeLoss="0.50" speed="11.13" departed="0" arrived="0" entered="1" left="1" laneChangedFrom="0" laneChangedTo="0"/>
        <edge id="724140709" sampledSeconds="0.45" traveltime="0.03" overlapTraveltime="0.45" density="55.39" laneDensity="18.46" occupancy="0.70" waitingTime="0.00" timeLoss="0.04" speed="11.91" departed="0" arrived="0" entered="1" left="1" laneChangedFrom="0" laneChangedTo="0"/>
        <edge id="803073473#1" sampledSeconds="1.82" traveltime="1.48" overlapTraveltime="1.82" density="4.46" laneDensity="4.46" occupancy="1.79" waitingTime="0.00" timeLoss="0.07" speed="13.95" departed="0" arrived="0" entered="1" left="1" laneChangedFrom="0" laneChangedTo="0"/>
        <edge id="803073473#2" sampledSeconds="3.48" traveltime="3.12" overlapTraveltime="3.48" density="3.97" laneDensity="3.97" occupancy="1.78" waitingTime="0.00" timeLoss="0.12" speed="14.04" departed="0" arrived="0" entered="1" left="1" laneChangedFrom="0" laneChangedTo="0"/>
        <edge id="852500192#1" sampledSeconds="9.00" traveltime="9.97" overlapTraveltime="10.61" density="5.85" laneDensity="5.85" occupancy="2.93" waitingTime="0.00" timeLoss="3.60" speed="7.71" departed="1" arrived="0" entered="0" left="0" laneChangedFrom="0" laneChangedTo="0"/>
    </interval>
    <interval begin="40.00" end="60.00" id="dumps_0_10000">
        <edge id="-100127193" sampledSeconds="13.21" traveltime="12.80" overlapTraveltime="13.21" density="4.17" laneDensity="4.17" occupancy="2.02" waitingTime="0.00" timeLoss="0.68" speed="12.36" departed="0" arrived="0" entered="1" left="1" laneChangedFrom="0" laneChangedTo="0"/>
        <edge id="-190733653#0" sampledSeconds="9.00" traveltime="15.20" overlapTraveltime="15.73" density="3.14" laneDensity="3.14" occupancy="1.57" waitingTime="0.00" timeLoss="3.70" speed="9.44" departed="1" arrived="0" entered="0" left="0" laneChangedFrom="0" laneChangedTo="0"/>
        <edge id="-190733653#3" sampledSeconds="4.25" traveltime="3.84" overlapTraveltime="4.25" density="4.38" laneDensity="4.38" occupancy="1.98" waitingTime="0.00" timeLoss="0.14" speed="12.58" departed="0" arrived="0" entered="1" left="1" laneChangedFrom="0" laneChangedTo="0"/>
        <edge id="-22958229#0" sampledSeconds="1.13" traveltime="0.06" overlapTraveltime="1.13" density="133.33" laneDensity="133.33" occupancy="5.39" waitingTime="0.00" timeLoss="0.51" speed="4.62" departed="0" arrived="0" entered="1" left="1" laneChangedFrom="0" laneChangedTo="0"/>
        <edge id="-23048453#0" sampledSeconds="1.73" traveltime="0.32" overlapTraveltime="1.73" density="50.37" laneDensity="50.37" occupancy="6.51" waitingTime="0.00" timeLoss="0.59" speed="3.88" departed="0" arrived="0" entered="1" left="1" laneChangedFrom="0" laneChangedTo="0"/>
        <edge id="-23048453#1" sampledSeconds="7.32" traveltime="7.54" overlapTraveltime="8.04" density="7.06" laneDensity="7.06" occupancy="3.39" waitingTime="0.00" timeLoss="4.03" speed="7.07" departed="1" arrived="0" entered="0" left="1" laneChangedFrom="0" laneChangedTo="0"/>
        <edge id="-23395979" sampledSeconds="0.21" traveltime="4.47" overlapTraveltime="4.89" density="0.19" laneDensity="0.19" occupancy="0.02" waitingTime="0.00" timeLoss="0.01" speed="12.13" departed="0" arrived="0" entered="1" left="0" laneChangedFrom="0" laneChangedTo="0"/>
        <edge id="-23533274#0" sampledSeconds="4.37" traveltime="8.41" overlapTraveltime="8.84" density="2.11" laneDensity="2.11" occupancy="1.00" waitingTime="0.00" timeLoss="0.23" speed="12.31" departed="0" arrived="0" entered="0" left="1" laneChangedFrom="0" laneChangedTo="0"/>
        <edge id="-25368524#4" sampledSeconds="1.69" traveltime="2.48" overlapTraveltime="2.95" density="3.20" laneDensity="1.60" occupancy="0.69" waitingTime="0.00" timeLoss="0.12" speed="10.61" departed="0" arrived="0" entered="1" left="0" laneChangedFrom="0" laneChangedTo="0"/>
        <edge id="-25368524#5" sampledSeconds="4.62" traveltime="4.16" overlapTraveltime="4.62" density="5.45" laneDensity="2.73" occupancy="1.21" waitingTime="0.00" timeLoss="0.47" speed="10.25" departed="0" arrived="0" entered="1" left="1" laneChangedFrom="0" laneChangedTo="0"/>